    5600
 i =        0, time =        0.000, E =    -15288.5964506816
  C         0.6237905473        0.6649759323        7.5012897733
  C         0.6240056603       12.9992758543        7.5012897733
  C         0.6242208333       25.3335749413        7.5012897733
  C         0.6244360063       37.6678778433        7.5012897733
  C         0.6246511783       50.0021788383        7.5012897733
  C         0.6248662923       62.3364798333        7.5012897733
  C         0.6250814643       74.6707808283        7.5012897733
  C         0.6252966373       87.0050780083        7.5012897733
  C         0.6255117503       99.3393828183        7.5012897733
  C         0.6257269233      111.6736723693        7.5012897733
  C        14.8653020713        0.6649759323        7.5012897733
  C        14.8655166473       12.9992758543        7.5012897733
  C        14.8657321783       25.3335749413        7.5012897733
  C        14.8659467543       37.6678778433        7.5012897733
  C        14.8661622853       50.0021788383        7.5012897733
  C        14.8663778153       62.3364798333        7.5012897733
  C        14.8665923923       74.6707808283        7.5012897733
  C        14.8668079223       87.0050780083        7.5012897733
  C        14.8670224993       99.3393828183        7.5012897733
  C        14.8672380293      111.6736723693        7.5012897733
  C        29.1068096013        0.6649759323        7.5012897733
  C        29.1070251313       12.9992758543        7.5012897733
  C        29.1072406623       25.3335749413        7.5012897733
  C        29.1074561923       37.6678778433        7.5012897733
  C        29.1076698153       50.0021788383        7.5012897733
  C        29.1078853453       62.3364798333        7.5012897733
  C        29.1081008763       74.6707808283        7.5012897733
  C        29.1083164063       87.0050780083        7.5012897733
  C        29.1085319373       99.3393828183        7.5012897733
  C        29.1087474673      111.6736723693        7.5012897733
  C        43.3483199923        0.6649759323        7.5012897733
  C        43.3485374303       12.9992758543        7.5012897733
  C        43.3487510533       25.3335749413        7.5012897733
  C        43.3489646764       37.6678778433        7.5012897733
  C        43.3491821143       50.0021788383        7.5012897733
  C        43.3493957373       62.3364798333        7.5012897733
  C        43.3496131743       74.6707808283        7.5012897733
  C        43.3498267973       87.0050780083        7.5012897733
  C        43.3500404213       99.3393828183        7.5012897733
  C        43.3502578583      111.6736723693        7.5012897733
  C        57.5898322913        0.6649759323        7.5012897733
  C        57.5900497283       12.9992758543        7.5012897733
  C        57.5902633513       25.3335749413        7.5012897733
  C        57.5904769743       37.6678778433        7.5012897733
  C        57.5906944123       50.0021788383        7.5012897733
  C        57.5909080353       62.3364798333        7.5012897733
  C        57.5911254733       74.6707808283        7.5012897733
  C        57.5913390963       87.0050780083        7.5012897733
  C        57.5915527193       99.3393828183        7.5012897733
  C        57.5917701573      111.6736723693        7.5012897733
  C        71.8313407754        0.6649759323        7.5012897733
  C        71.8315543983       12.9992758543        7.5012897733
  C        71.8317680214       25.3335749413        7.5012897733
  C        71.8319816443       37.6678778433        7.5012897733
  C        71.8321952674       50.0021788383        7.5012897733
  C        71.8324165193       62.3364798333        7.5012897733
  C        71.8326301423       74.6707808283        7.5012897733
  C        71.8328437653       87.0050780083        7.5012897733
  C        71.8330573883       99.3393828183        7.5012897733
  C        71.8332710113      111.6736723693        7.5012897733
  C        86.0728568884        0.6649759323        7.5012897733
  C        86.0730705113       12.9992758543        7.5012897733
  C        86.0732841344       25.3335749413        7.5012897733
  C        86.0734977573       37.6678778433        7.5012897733
  C        86.0737113803       50.0021788383        7.5012897733
  C        86.0739326323       62.3364798333        7.5012897733
  C        86.0741462563       74.6707808283        7.5012897733
  C        86.0743598793       87.0050780083        7.5012897733
  C        86.0745735023       99.3393828183        7.5012897733
  C        86.0747871253      111.6736723693        7.5012897733
  C       100.3143577423        0.6649759323        7.5012897733
  C       100.3145713653       12.9992758543        7.5012897733
  C       100.3147849883       25.3335749413        7.5012897733
  C       100.3149986113       37.6678778433        7.5012897733
  C       100.3152122354       50.0021788383        7.5012897733
  C       100.3154334873       62.3364798333        7.5012897733
  C       100.3156471103       74.6707808283        7.5012897733
  C       100.3158607333       87.0050780083        7.5012897733
  C       100.3160743564       99.3393828183        7.5012897733
  C       100.3162879793      111.6736723693        7.5012897733
  C       114.5558738564        0.6649759323        7.5012897733
  C       114.5560874793       12.9992758543        7.5012897733
  C       114.5563011023       25.3335749413        7.5012897733
  C       114.5565147253       37.6678778433        7.5012897733
  C       114.5567283483       50.0021788383        7.5012897733
  C       114.5569496003       62.3364798333        7.5012897733
  C       114.5571632234       74.6707808283        7.5012897733
  C       114.5573768463       87.0050780083        7.5012897733
  C       114.5575904694       99.3393828183        7.5012897733
  C       114.5578040923      111.6736723693        7.5012897733
  C       128.7973594514        0.6649759323        7.5012897733
  C       128.7975730743       12.9992758543        7.5012897733
  C       128.7977866974       25.3335749413        7.5012897733
  C       128.7980155794       37.6678778433        7.5012897733
  C       128.7982292023       50.0021788383        7.5012897733
  C       128.7984428254       62.3364798333        7.5012897733
  C       128.7986564484       74.6707808283        7.5012897733
  C       128.7988700713       87.0050780083        7.5012897733
  C       128.7990836944       99.3393828183        7.5012897733
  C       128.7992973183      111.6736723693        7.5012897733
  C         1.7043573703        2.6812021043        7.5000747323
  C         1.7045725433       15.0155026223        7.5000747323
  C         1.7047877163       27.3498026633        7.5000747323
  C         1.7050028893       39.6841055663        7.5000747323
  C         1.7052180613       52.0184065603        7.5000747323
  C         1.7054332343       64.3527037413        7.5000747323
  C         1.7056484073       76.6870085503        7.5000747323
  C         1.7058634613       89.0213057303        7.5000747323
  C         1.7060786333      101.3556105403        7.5000747323
  C         1.7062938063      113.6899077203        7.5000747323
  C        15.9458675233        2.6812021043        7.5000747323
  C        15.9460830543       15.0155026223        7.5000747323
  C        15.9462985843       27.3498026633        7.5000747323
  C        15.9465131613       39.6841055663        7.5000747323
  C        15.9467286913       52.0184065603        7.5000747323
  C        15.9469432683       64.3527037413        7.5000747323
  C        15.9471587983       76.6870085503        7.5000747323
  C        15.9473743293       89.0213057303        7.5000747323
  C        15.9475889053      101.3556105403        7.5000747323
  C        15.9478044363      113.6899077203        7.5000747323
  C        30.1873798223        2.6812021043        7.5000747323
  C        30.1875953523       15.0155026223        7.5000747323
  C        30.1878089753       27.3498026633        7.5000747323
  C        30.1880245063       39.6841055663        7.5000747323
  C        30.1882400363       52.0184065603        7.5000747323
  C        30.1884555663       64.3527037413        7.5000747323
  C        30.1886710973       76.6870085503        7.5000747323
  C        30.1888847203       89.0213057303        7.5000747323
  C        30.1891002503      101.3556105403        7.5000747323
  C        30.1893157813      113.6899077203        7.5000747323
  C        44.4288863983        2.6812021043        7.5000747323
  C        44.4291038363       15.0155026223        7.5000747323
  C        44.4293174593       27.3498026633        7.5000747323
  C        44.4295348973       39.6841055663        7.5000747323
  C        44.4297485203       52.0184065603        7.5000747323
  C        44.4299621433       64.3527037413        7.5000747323
  C        44.4301795813       76.6870085503        7.5000747323
  C        44.4303932043       89.0213057303        7.5000747323
  C        44.4306106414      101.3556105403        7.5000747323
  C        44.4308242653      113.6899077203        7.5000747323
  C        58.6703948823        2.6812021043        7.5000747323
  C        58.6706123203       15.0155026223        7.5000747323
  C        58.6708259433       27.3498026633        7.5000747323
  C        58.6710433813       39.6841055663        7.5000747323
  C        58.6712570043       52.0184065603        7.5000747323
  C        58.6714706273       64.3527037413        7.5000747323
  C        58.6716880653       76.6870085503        7.5000747323
  C        58.6719016883       89.0213057303        7.5000747323
  C        58.6721191254      101.3556105403        7.5000747323
  C        58.6723327483      113.6899077203        7.5000747323
  C        72.9119071814        2.6812021043        7.5000747323
  C        72.9121208043       15.0155026223        7.5000747323
  C        72.9123420563       27.3498026633        7.5000747323
  C        72.9125556793       39.6841055663        7.5000747323
  C        72.9127693024       52.0184065603        7.5000747323
  C        72.9129829253       64.3527037413        7.5000747323
  C        72.9131965484       76.6870085503        7.5000747323
  C        72.9134178013       89.0213057303        7.5000747323
  C        72.9136314244      101.3556105403        7.5000747323
  C        72.9138450473      113.6899077203        7.5000747323
  C        87.1534156653        2.6812021043        7.5000747323
  C        87.1536292883       15.0155026223        7.5000747323
  C        87.1538505403       27.3498026633        7.5000747323
  C        87.1540641634       39.6841055663        7.5000747323
  C        87.1542777863       52.0184065603        7.5000747323
  C        87.1544914094       64.3527037413        7.5000747323
  C        87.1547050323       76.6870085503        7.5000747323
  C        87.1549262854       89.0213057303        7.5000747323
  C        87.1551399083      101.3556105403        7.5000747323
  C        87.1553535314      113.6899077203        7.5000747323
  C       101.3949241494        2.6812021043        7.5000747323
  C       101.3951377723       15.0155026223        7.5000747323
  C       101.3953590244       27.3498026633        7.5000747323
  C       101.3955726473       39.6841055663        7.5000747323
  C       101.3957862704       52.0184065603        7.5000747323
  C       101.3959998933       64.3527037413        7.5000747323
  C       101.3962135164       76.6870085503        7.5000747323
  C       101.3964347693       89.0213057303        7.5000747323
  C       101.3966483924      101.3556105403        7.5000747323
  C       101.3968620153      113.6899077203        7.5000747323
  C       115.6364326323        2.6812021043        7.5000747323
  C       115.6366462563       15.0155026223        7.5000747323
  C       115.6368675083       27.3498026633        7.5000747323
  C       115.6370811314       39.6841055663        7.5000747323
  C       115.6372947543       52.0184065603        7.5000747323
  C       115.6375083774       64.3527037413        7.5000747323
  C       115.6377220003       76.6870085503        7.5000747323
  C       115.6379432534       89.0213057303        7.5000747323
  C       115.6381568763      101.3556105403        7.5000747323
  C       115.6383704994      113.6899077203        7.5000747323
  C       129.8779411164        2.6812021043        7.5000747323
  C       129.8781547394       15.0155026223        7.5000747323
  C       129.8783683623       27.3498026633        7.5000747323
  C       129.8785819854       39.6841055663        7.5000747323
  C       129.8787956094       52.0184065603        7.5000747323
  C       129.8790092323       64.3527037413        7.5000747323
  C       129.8792228554       76.6870085503        7.5000747323
  C       129.8794364783       89.0213057303        7.5000747323
  C       129.8796501014      101.3556105403        7.5000747323
  C       129.8798637244      113.6899077203        7.5000747323
  C         5.3323039863        0.6651608253        7.5007347343
  C         5.3325190393       12.9994608663        7.5007347343
  C         5.3327345703       25.3337618613        7.5007347343
  C         5.3329496233       37.6680609493        7.5007347343
  C         5.3331646773       50.0023619443        7.5007347343
  C         5.3333797303       62.3366629393        7.5007347343
  C         5.3335947843       74.6709639333        7.5007347343
  C         5.3338103143       87.0052611143        7.5007347343
  C         5.3340253683       99.3395659233        7.5007347343
  C         5.3342404213      111.6738631033        7.5007347343
  C        19.5738124693        0.6651608253        7.5007347343
  C        19.5740280003       12.9994608663        7.5007347343
  C        19.5742435303       25.3337618613        7.5007347343
  C        19.5744590613       37.6680609493        7.5007347343
  C        19.5746726843       50.0023619443        7.5007347343
  C        19.5748882143       62.3366629393        7.5007347343
  C        19.5751037453       74.6709639333        7.5007347343
  C        19.5753192753       87.0052611143        7.5007347343
  C        19.5755348053       99.3395659233        7.5007347343
  C        19.5757503363      111.6738631033        7.5007347343
  C        33.8153228613        0.6651608253        7.5007347343
  C        33.8155402983       12.9994608663        7.5007347343
  C        33.8157539223       25.3337618613        7.5007347343
  C        33.8159675453       37.6680609493        7.5007347343
  C        33.8161849823       50.0023619443        7.5007347343
  C        33.8163986053       62.3366629393        7.5007347343
  C        33.8166160433       74.6709639333        7.5007347343
  C        33.8168296663       87.0052611143        7.5007347343
  C        33.8170432893       99.3395659233        7.5007347343
  C        33.8172607273      111.6738631033        7.5007347343
  C        48.0568351593        0.6651608253        7.5007347343
  C        48.0570525973       12.9994608663        7.5007347343
  C        48.0572662203       25.3337618613        7.5007347343
  C        48.0574798433       37.6680609493        7.5007347343
  C        48.0576972813       50.0023619443        7.5007347343
  C        48.0579109043       62.3366629393        7.5007347343
  C        48.0581283423       74.6709639333        7.5007347343
  C        48.0583419653       87.0052611143        7.5007347343
  C        48.0585555883       99.3395659233        7.5007347343
  C        48.0587730263      111.6738631033        7.5007347343
  C        62.2983436433        0.6651608253        7.5007347343
  C        62.2985610813       12.9994608663        7.5007347343
  C        62.2987747043       25.3337618613        7.5007347343
  C        62.2989883273       37.6680609493        7.5007347343
  C        62.2992057653       50.0023619443        7.5007347343
  C        62.2994193883       62.3366629393        7.5007347343
  C        62.2996368263       74.6709639333        7.5007347343
  C        62.2998504493       87.0052611143        7.5007347343
  C        62.3000640723       99.3395659233        7.5007347343
  C        62.3002815093      111.6738631033        7.5007347343
  C        76.5398597563        0.6651608253        7.5007347343
  C        76.5400733803       12.9994608663        7.5007347343
  C        76.5402870034       25.3337618613        7.5007347343
  C        76.5405006263       37.6680609493        7.5007347343
  C        76.5407142494       50.0023619443        7.5007347343
  C        76.5409355013       62.3366629393        7.5007347343
  C        76.5411491243       74.6709639333        7.5007347343
  C        76.5413627473       87.0052611143        7.5007347343
  C        76.5415763704       99.3395659233        7.5007347343
  C        76.5417899933      111.6738631033        7.5007347343
  C        90.7813758704        0.6651608253        7.5007347343
  C        90.7815894933       12.9994608663        7.5007347343
  C        90.7818031163       25.3337618613        7.5007347343
  C        90.7820167393       37.6680609493        7.5007347343
  C        90.7822303623       50.0023619443        7.5007347343
  C        90.7824516143       62.3366629393        7.5007347343
  C        90.7826652374       74.6709639333        7.5007347343
  C        90.7828788603       87.0052611143        7.5007347343
  C        90.7830924843       99.3395659233        7.5007347343
  C        90.7833061074      111.6738631033        7.5007347343
  C       105.0228767243        0.6651608253        7.5007347343
  C       105.0230903473       12.9994608663        7.5007347343
  C       105.0233039703       25.3337618613        7.5007347343
  C       105.0235175933       37.6680609493        7.5007347343
  C       105.0237312164       50.0023619443        7.5007347343
  C       105.0239524693       62.3366629393        7.5007347343
  C       105.0241660924       74.6709639333        7.5007347343
  C       105.0243797153       87.0052611143        7.5007347343
  C       105.0245933384       99.3395659233        7.5007347343
  C       105.0248069613      111.6738631033        7.5007347343
  C       119.2643928383        0.6651608253        7.5007347343
  C       119.2646064613       12.9994608663        7.5007347343
  C       119.2648200843       25.3337618613        7.5007347343
  C       119.2650337073       37.6680609493        7.5007347343
  C       119.2652473303       50.0023619443        7.5007347343
  C       119.2654685823       62.3366629393        7.5007347343
  C       119.2656822054       74.6709639333        7.5007347343
  C       119.2658958283       87.0052611143        7.5007347343
  C       119.2661094514       99.3395659233        7.5007347343
  C       119.2663230743      111.6738631033        7.5007347343
  C       133.5058860634        0.6651608253        7.5007347343
  C       133.5060996863       12.9994608663        7.5007347343
  C       133.5063133094       25.3337618613        7.5007347343
  C       133.5065421914       37.6680609493        7.5007347343
  C       133.5067558143       50.0023619443        7.5007347343
  C       133.5069694374       62.3366629393        7.5007347343
  C       133.5071830604       74.6709639333        7.5007347343
  C       133.5073966833       87.0052611143        7.5007347343
  C       133.5076103064       99.3395659233        7.5007347343
  C       133.5078239293      111.6738631033        7.5007347343
  C         4.2525057643        2.6818682463        7.4999847893
  C         4.2527208183       15.0161682873        7.4999847893
  C         4.2529358713       27.3504683283        7.4999847893
  C         4.2531514023       39.6847731383        7.4999847893
  C         4.2533664553       52.0190703183        7.4999847893
  C         4.2535815093       64.3533674983        7.4999847893
  C         4.2537965623       76.6876723073        7.4999847893
  C         4.2540116163       89.0219694883        7.4999847893
  C         4.2542271463      101.3562666683        7.4999847893
  C         4.2544422003      113.6905638483        7.4999847893
  C        18.4940166323        2.6818682463        7.4999847893
  C        18.4942321623       15.0161682873        7.4999847893
  C        18.4944457863       27.3504683283        7.4999847893
  C        18.4946613163       39.6847731383        7.4999847893
  C        18.4948768463       52.0190703183        7.4999847893
  C        18.4950923773       64.3533674983        7.4999847893
  C        18.4953079073       76.6876723073        7.4999847893
  C        18.4955215303       89.0219694883        7.4999847893
  C        18.4957370613      101.3562666683        7.4999847893
  C        18.4959525913      113.6905638483        7.4999847893
  C        32.7355232093        2.6818682463        7.4999847893
  C        32.7357406463       15.0161682873        7.4999847893
  C        32.7359542693       27.3504683283        7.4999847893
  C        32.7361717073       39.6847731383        7.4999847893
  C        32.7363853303       52.0190703183        7.4999847893
  C        32.7365989533       64.3533674983        7.4999847893
  C        32.7368163913       76.6876723073        7.4999847893
  C        32.7370300143       89.0219694883        7.4999847893
  C        32.7372474523      101.3562666683        7.4999847893
  C        32.7374610753      113.6905638483        7.4999847893
  C        46.9770316933        2.6818682463        7.4999847893
  C        46.9772491303       15.0161682873        7.4999847893
  C        46.9774627533       27.3504683283        7.4999847893
  C        46.9776801913       39.6847731383        7.4999847893
  C        46.9778938143       52.0190703183        7.4999847893
  C        46.9781074373       64.3533674983        7.4999847893
  C        46.9783248753       76.6876723073        7.4999847893
  C        46.9785384983       89.0219694883        7.4999847893
  C        46.9787559363      101.3562666683        7.4999847893
  C        46.9789695593      113.6905638483        7.4999847893
  C        61.2185439913        2.6818682463        7.4999847893
  C        61.2187614293       15.0161682873        7.4999847893
  C        61.2189750523       27.3504683283        7.4999847893
  C        61.2191924903       39.6847731383        7.4999847893
  C        61.2194061133       52.0190703183        7.4999847893
  C        61.2196197363       64.3533674983        7.4999847893
  C        61.2198371733       76.6876723073        7.4999847893
  C        61.2200507973       89.0219694883        7.4999847893
  C        61.2202682343      101.3562666683        7.4999847893
  C        61.2204818573      113.6905638483        7.4999847893
  C        75.4600562903        2.6818682463        7.4999847893
  C        75.4602699133       15.0161682873        7.4999847893
  C        75.4604911653       27.3504683283        7.4999847893
  C        75.4607047884       39.6847731383        7.4999847893
  C        75.4609184113       52.0190703183        7.4999847893
  C        75.4611320344       64.3533674983        7.4999847893
  C        75.4613456573       76.6876723073        7.4999847893
  C        75.4615669104       89.0219694883        7.4999847893
  C        75.4617805333      101.3562666683        7.4999847893
  C        75.4619941563      113.6905638483        7.4999847893
  C        89.7015724033        2.6818682463        7.4999847893
  C        89.7017860263       15.0161682873        7.4999847893
  C        89.7020072783       27.3504683283        7.4999847893
  C        89.7022209023       39.6847731383        7.4999847893
  C        89.7024345254       52.0190703183        7.4999847893
  C        89.7026481483       64.3533674983        7.4999847893
  C        89.7028617713       76.6876723073        7.4999847893
  C        89.7030830234       89.0219694883        7.4999847893
  C        89.7032966463      101.3562666683        7.4999847893
  C        89.7035102693      113.6905638483        7.4999847893
  C       103.9430732573        2.6818682463        7.4999847893
  C       103.9432868813       15.0161682873        7.4999847893
  C       103.9435081333       27.3504683283        7.4999847893
  C       103.9437217564       39.6847731383        7.4999847893
  C       103.9439353793       52.0190703183        7.4999847893
  C       103.9441490024       64.3533674983        7.4999847893
  C       103.9443626253       76.6876723073        7.4999847893
  C       103.9445838784       89.0219694883        7.4999847893
  C       103.9447975013      101.3562666683        7.4999847893
  C       103.9450111244      113.6905638483        7.4999847893
  C       118.1845893714        2.6818682463        7.4999847893
  C       118.1848029943       15.0161682873        7.4999847893
  C       118.1850242463       27.3504683283        7.4999847893
  C       118.1852378694       39.6847731383        7.4999847893
  C       118.1854514923       52.0190703183        7.4999847893
  C       118.1856651153       64.3533674983        7.4999847893
  C       118.1858787383       76.6876723073        7.4999847893
  C       118.1860999913       89.0219694883        7.4999847893
  C       118.1863136143      101.3562666683        7.4999847893
  C       118.1865272373      113.6905638483        7.4999847893
  C       132.4260978554        2.6818682463        7.4999847893
  C       132.4263114783       15.0161682873        7.4999847893
  C       132.4265251014       27.3504683283        7.4999847893
  C       132.4267387244       39.6847731383        7.4999847893
  C       132.4269523473       52.0190703183        7.4999847893
  C       132.4271659704       64.3533674983        7.4999847893
  C       132.4273795934       76.6876723073        7.4999847893
  C       132.4275932163       89.0219694883        7.4999847893
  C       132.4278068394      101.3562666683        7.4999847893
  C       132.4280204623      113.6905638483        7.4999847893
  C         7.7446732373        0.6644700073        7.5007197743
  C         7.7448882903       12.9987694533        7.5007197743
  C         7.7451038213       25.3330694943        7.5007197743
  C         7.7453188743       37.6673743033        7.5007197743
  C         7.7455339283       50.0016752983        7.5007197743
  C         7.7457489813       62.3359724783        7.5007197743
  C         7.7459640353       74.6702772883        7.5007197743
  C         7.7461795653       87.0045668393        7.5007197743
  C         7.7463946193       99.3388716483        7.5007197743
  C         7.7466096733      111.6731688283        7.5007197743
  C        21.9861831513        0.6644700073        7.5007197743
  C        21.9863986823       12.9987694533        7.5007197743
  C        21.9866142123       25.3330694943        7.5007197743
  C        21.9868297423       37.6673743033        7.5007197743
  C        21.9870433653       50.0016752983        7.5007197743
  C        21.9872588963       62.3359724783        7.5007197743
  C        21.9874744263       74.6702772883        7.5007197743
  C        21.9876899573       87.0045668393        7.5007197743
  C        21.9879054873       99.3388716483        7.5007197743
  C        21.9881210173      111.6731688283        7.5007197743
  C        36.2276916353        0.6644700073        7.5007197743
  C        36.2279090733       12.9987694533        7.5007197743
  C        36.2281226963       25.3330694943        7.5007197743
  C        36.2283363193       37.6673743033        7.5007197743
  C        36.2285537573       50.0016752983        7.5007197743
  C        36.2287673803       62.3359724783        7.5007197743
  C        36.2289848183       74.6702772883        7.5007197743
  C        36.2291984414       87.0045668393        7.5007197743
  C        36.2294120644       99.3388716483        7.5007197743
  C        36.2296295013      111.6731688283        7.5007197743
  C        50.4692001193        0.6644700073        7.5007197743
  C        50.4694175573       12.9987694533        7.5007197743
  C        50.4696311803       25.3330694943        7.5007197743
  C        50.4698448033       37.6673743033        7.5007197743
  C        50.4700622413       50.0016752983        7.5007197743
  C        50.4702758644       62.3359724783        7.5007197743
  C        50.4704933013       74.6702772883        7.5007197743
  C        50.4707069243       87.0045668393        7.5007197743
  C        50.4709205473       99.3388716483        7.5007197743
  C        50.4711379853      111.6731688283        7.5007197743
  C        64.7107200473        0.6644700073        7.5007197743
  C        64.7109336704       12.9987694533        7.5007197743
  C        64.7111472933       25.3330694943        7.5007197743
  C        64.7113609164       37.6673743033        7.5007197743
  C        64.7115745393       50.0016752983        7.5007197743
  C        64.7117957924       62.3359724783        7.5007197743
  C        64.7120094153       74.6702772883        7.5007197743
  C        64.7122230384       87.0045668393        7.5007197743
  C        64.7124366613       99.3388716483        7.5007197743
  C        64.7126502844      111.6731688283        7.5007197743
  C        78.9522285314        0.6644700073        7.5007197743
  C        78.9524421543       12.9987694533        7.5007197743
  C        78.9526557774       25.3330694943        7.5007197743
  C        78.9528694003       37.6673743033        7.5007197743
  C        78.9530830234       50.0016752983        7.5007197743
  C        78.9533042763       62.3359724783        7.5007197743
  C        78.9535178994       74.6702772883        7.5007197743
  C        78.9537315223       87.0045668393        7.5007197743
  C        78.9539451453       99.3388716483        7.5007197743
  C        78.9541587683      111.6731688283        7.5007197743