    1400
 i =        0, time =        0.000, E =     -3822.3715305467
  C         0.6243246049        0.6649721222        7.5012897733
  C         0.6245397179       12.9992720442        7.5012897733
  C         0.6247548909       25.3335711312        7.5012897733
  C         0.6249700639       37.6678740332        7.5012897733
  C         0.6251852359       50.0021750282        7.5012897733
  C        14.8658361289        0.6649721222        7.5012897733
  C        14.8660507049       12.9992720442        7.5012897733
  C        14.8662662359       25.3335711312        7.5012897733
  C        14.8664808119       37.6678740332        7.5012897733
  C        14.8666963429       50.0021750282        7.5012897733
  C        29.1073436589        0.6649721222        7.5012897733
  C        29.1075591889       12.9992720442        7.5012897733
  C        29.1077747199       25.3335711312        7.5012897733
  C        29.1079902499       37.6678740332        7.5012897733
  C        29.1082038729       50.0021750282        7.5012897733
  C        43.3488540499        0.6649721222        7.5012897733
  C        43.3490714879       12.9992720442        7.5012897733
  C        43.3492851109       25.3335711312        7.5012897733
  C        43.3494987339       37.6678740332        7.5012897733
  C        43.3497161719       50.0021750282        7.5012897733
  C        57.5903663489        0.6649721222        7.5012897733
  C        57.5905837859       12.9992720442        7.5012897733
  C        57.5907974089       25.3335711312        7.5012897733
  C        57.5910110319       37.6678740332        7.5012897733
  C        57.5912284699       50.0021750282        7.5012897733
  C         1.7048914279        2.6811982942        7.5000747323
  C         1.7051066009       15.0154988122        7.5000747323
  C         1.7053217739       27.3497988532        7.5000747323
  C         1.7055369469       39.6841017561        7.5000747323
  C         1.7057521189       52.0184027502        7.5000747323
  C        15.9464015809        2.6811982942        7.5000747323
  C        15.9466171119       15.0154988122        7.5000747323
  C        15.9468326419       27.3497988532        7.5000747323
  C        15.9470472189       39.6841017561        7.5000747323
  C        15.9472627489       52.0184027502        7.5000747323
  C        30.1879138799        2.6811982942        7.5000747323
  C        30.1881294099       15.0154988122        7.5000747323
  C        30.1883430329       27.3497988532        7.5000747323
  C        30.1885585639       39.6841017561        7.5000747323
  C        30.1887740939       52.0184027502        7.5000747323
  C        44.4294204559        2.6811982942        7.5000747323
  C        44.4296378939       15.0154988122        7.5000747323
  C        44.4298515169       27.3497988532        7.5000747323
  C        44.4300689549       39.6841017561        7.5000747323
  C        44.4302825779       52.0184027502        7.5000747323
  C        58.6709289399        2.6811982942        7.5000747323
  C        58.6711463779       15.0154988122        7.5000747323
  C        58.6713600009       27.3497988532        7.5000747323
  C        58.6715774389       39.6841017561        7.5000747323
  C        58.6717910619       52.0184027502        7.5000747323
  C         5.3328380439        0.6651570152        7.5007347343
  C         5.3330530969       12.9994570562        7.5007347343
  C         5.3332686279       25.3337580512        7.5007347343
  C         5.3334836809       37.6680571392        7.5007347343
  C         5.3336987349       50.0023581342        7.5007347343
  C        19.5743465269        0.6651570152        7.5007347343
  C        19.5745620579       12.9994570562        7.5007347343
  C        19.5747775879       25.3337580512        7.5007347343
  C        19.5749931189       37.6680571392        7.5007347343
  C        19.5752067419       50.0023581342        7.5007347343
  C        33.8158569189        0.6651570152        7.5007347343
  C        33.8160743559       12.9994570562        7.5007347343
  C        33.8162879799       25.3337580512        7.5007347343
  C        33.8165016029       37.6680571392        7.5007347343
  C        33.8167190399       50.0023581342        7.5007347343
  C        48.0573692169        0.6651570152        7.5007347343
  C        48.0575866549       12.9994570562        7.5007347343
  C        48.0578002779       25.3337580512        7.5007347343
  C        48.0580139009       37.6680571392        7.5007347343
  C        48.0582313389       50.0023581342        7.5007347343
  C        62.2988777009        0.6651570152        7.5007347343
  C        62.2990951389       12.9994570562        7.5007347343
  C        62.2993087619       25.3337580512        7.5007347343
  C        62.2995223849       37.6680571392        7.5007347343
  C        62.2997398229       50.0023581342        7.5007347343
  C         4.2530393449        2.6818644362        7.4999847893
  C         4.2532543989       15.0161644772        7.4999847893
  C         4.2534694519       27.3504645182        7.4999847893
  C         4.2536849829       39.6847693282        7.4999847893
  C         4.2539000359       52.0190665082        7.4999847893
  C        18.4945506899        2.6818644362        7.4999847893
  C        18.4947662199       15.0161644772        7.4999847893
  C        18.4949798439       27.3504645182        7.4999847893
  C        18.4951953739       39.6847693282        7.4999847893
  C        18.4954109039       52.0190665082        7.4999847893
  C        32.7360572669        2.6818644362        7.4999847893
  C        32.7362747039       15.0161644772        7.4999847893
  C        32.7364883269       27.3504645182        7.4999847893
  C        32.7367057649       39.6847693282        7.4999847893
  C        32.7369193879       52.0190665082        7.4999847893
  C        46.9775657509        2.6818644362        7.4999847893
  C        46.9777831879       15.0161644772        7.4999847893
  C        46.9779968109       27.3504645182        7.4999847893
  C        46.9782142489       39.6847693282        7.4999847893
  C        46.9784278719       52.0190665082        7.4999847893
  C        61.2190780489        2.6818644362        7.4999847893
  C        61.2192954869       15.0161644772        7.4999847893
  C        61.2195091099       27.3504645182        7.4999847893
  C        61.2197265479       39.6847693282        7.4999847893
  C        61.2199401709       52.0190665082        7.4999847893
  C         7.7452068179        0.6644661972        7.5007197743
  C         7.7454218719       12.9987656432        7.5007197743
  C         7.7456374019       25.3330656842        7.5007197743
  C         7.7458524559       37.6673704932        7.5007197743
  C         7.7460675089       50.0016714882        7.5007197743
  C        21.9867172089        0.6644661972        7.5007197743
  C        21.9869327399       12.9987656432        7.5007197743
  C        21.9871482699       25.3330656842        7.5007197743
  C        21.9873637999       37.6673704932        7.5007197743
  C        21.9875774229       50.0016714882        7.5007197743
  C        36.2282256929        0.6644661972        7.5007197743
  C        36.2284431309       12.9987656432        7.5007197743
  C        36.2286567539       25.3330656842        7.5007197743
  C        36.2288703769       37.6673704932        7.5007197743
  C        36.2290878149       50.0016714882        7.5007197743
  C        50.4697341769        0.6644661972        7.5007197743
  C        50.4699516149       12.9987656432        7.5007197743
  C        50.4701652379       25.3330656842        7.5007197743
  C        50.4703788609       37.6673704932        7.5007197743
  C        50.4705962989       50.0016714882        7.5007197743
  C        64.7112541049        0.6644661972        7.5007197743
  C        64.7114677279       12.9987656432        7.5007197743
  C        64.7116813509       25.3330656842        7.5007197743
  C        64.7118949739       37.6673704932        7.5007197743
  C        64.7121085969       50.0016714882        7.5007197743
  C         6.5394444319        2.7537485912        7.5002097373
  C         6.5396594849       15.0880486322        7.5002097373
  C         6.5398745389       27.4223486732        7.5002097373
  C         6.5400895919       39.7566496682        7.5002097373
  C         6.5403046459       52.0909506632        7.5002097373
  C        20.7809543459        2.7537485912        7.5002097373
  C        20.7811698759       15.0880486322        7.5002097373
  C        20.7813854069       27.4223486732        7.5002097373
  C        20.7816009369       39.7566496682        7.5002097373
  C        20.7818164679       52.0909506632        7.5002097373
  C        35.0224609229        2.7537485912        7.5002097373
  C        35.0226745459       15.0880486322        7.5002097373
  C        35.0228881689       27.4223486732        7.5002097373
  C        35.0231056059       39.7566496682        7.5002097373
  C        35.0233192299       52.0909506632        7.5002097373
  C        49.2639770359        2.7537485912        7.5002097373
  C        49.2641906589       15.0880486322        7.5002097373
  C        49.2644042819       27.4223486732        7.5002097373
  C        49.2646217199       39.7566496682        7.5002097373
  C        49.2648353429       52.0909506632        7.5002097373
  C        63.5054855199        2.7537485912        7.5002097373
  C        63.5056991429       15.0880486322        7.5002097373
  C        63.5059127659       27.4223486732        7.5002097373
  C        63.5061302039       39.7566496682        7.5002097373
  C        63.5063438269       52.0909506632        7.5002097373
  C         8.8258313979        2.6807789162        7.5000747323
  C         8.8260469289       15.0150791952        7.5000747323
  C         8.8262624589       27.3493792372        7.5000747323
  C         8.8264770359       39.6836859542        7.5000747323
  C         8.8266925659       52.0179831342        7.5000747323
  C        23.0673408359        2.6807789162        7.5000747323
  C        23.0675563659       15.0150791952        7.5000747323
  C        23.0677699889       27.3493792372        7.5000747323
  C        23.0679855199       39.6836859542        7.5000747323
  C        23.0682010499       52.0179831342        7.5000747323
  C        37.3088455049        2.6807789162        7.5000747323
  C        37.3090629429       15.0150791952        7.5000747323
  C        37.3092765659       27.3493792372        7.5000747323
  C        37.3094940039       39.6836859542        7.5000747323
  C        37.3097076269       52.0179831342        7.5000747323
  C        51.5503616179        2.6807789162        7.5000747323
  C        51.5505790559       15.0150791952        7.5000747323
  C        51.5507926789       27.3493792372        7.5000747323
  C        51.5510101169       39.6836859542        7.5000747323
  C        51.5512237399       52.0179831342        7.5000747323
  C        65.7918739169        2.6807789162        7.5000747323
  C        65.7920875399       15.0150791952        7.5000747323
  C        65.7923087929       27.3493792372        7.5000747323
  C        65.7925224159       39.6836859542        7.5000747323
  C        65.7927360389       52.0179831342        7.5000747323
  C        12.4536933749        0.6654531312        7.5011397483
  C        12.4539079519       12.9997526952        7.5011397483
  C        12.4541234819       25.3340536902        7.5011397483
  C        12.4543380589       37.6683585002        7.5011397483
  C        12.4545535889       50.0026556802        7.5011397483
  C        26.6952018589        0.6654531312        7.5011397483
  C        26.6954173889       12.9997526952        7.5011397483
  C        26.6956329199       25.3340536902        7.5011397483
  C        26.6958484499       37.6683585002        7.5011397483
  C        26.6960620729       50.0026556802        7.5011397483
  C        40.9367141569        0.6654531312        7.5011397483
  C        40.9369315949       12.9997526952        7.5011397483
  C        40.9371452179       25.3340536902        7.5011397483
  C        40.9373588409       37.6683585002        7.5011397483
  C        40.9375762789       50.0026556802        7.5011397483
  C        55.1782226409        0.6654531312        7.5011397483
  C        55.1784400789       12.9997526952        7.5011397483
  C        55.1786537019       25.3340536902        7.5011397483
  C        55.1788673249       37.6683585002        7.5011397483
  C        55.1790847629       50.0026556802        7.5011397483
  C        69.4197425689        0.6654531312        7.5011397483
  C        69.4199561919       12.9997526952        7.5011397483
  C        69.4201698149       25.3340536902        7.5011397483
  C        69.4203834389       37.6683585002        7.5011397483
  C        69.4205970619       50.0026556802        7.5011397483
  C        11.3738517609        2.6822342232        7.4999997503
  C        11.3740672919       15.0165354562        7.4999997503
  C        11.3742828219       27.3508345442        7.4999997503
  C        11.3744973989       39.6851393532        7.4999997503
  C        11.3747129289       52.0194365332        7.4999997503
  C        25.6153621519        2.6822342232        7.4999997503
  C        25.6155776829       15.0165354562        7.4999997503
  C        25.6157913059       27.3508345442        7.4999997503
  C        25.6160068359       39.6851393532        7.4999997503
  C        25.6162223669       52.0194365332        7.4999997503
  C        39.8568687289        2.6822342232        7.4999997503
  C        39.8570861669       15.0165354562        7.4999997503
  C        39.8572997899       27.3508345442        7.4999997503
  C        39.8575172279       39.6851393532        7.4999997503
  C        39.8577308509       52.0194365332        7.4999997503
  C        54.0983810279        2.6822342232        7.4999997503
  C        54.0985984649       15.0165354562        7.4999997503
  C        54.0988120879       27.3508345442        7.4999997503
  C        54.0990295259       39.6851393532        7.4999997503
  C        54.0992431489       52.0194365332        7.4999997503
  C        68.3398933259        2.6822342232        7.4999997503
  C        68.3401069489       15.0165354562        7.4999997503
  C        68.3403282019       27.3508345442        7.4999997503
  C        68.3405418249       39.6851393532        7.4999997503
  C        68.3407554479       52.0194365332        7.4999997503
  C        13.6599426119        2.7540816622        7.5001497153
  C        13.6601571889       15.0883805112        7.5001497153
  C        13.6603727189       27.4226824592        7.5001497153
  C        13.6605882499       39.7569853612        7.5001497153
  C        13.6608028259       52.0912863562        7.5001497153
  C        27.9014510959        2.7540816622        7.5001497153
  C        27.9016666259       15.0883805112        7.5001497153
  C        27.9018821569       27.4226824592        7.5001497153
  C        27.9020976869       39.7569853612        7.5001497153
  C        27.9023132179       52.0912863562        7.5001497153
  C        42.1429633949        2.7540816622        7.5001497153
  C        42.1431770179       15.0883805112        7.5001497153
  C        42.1433906409       27.4226824592        7.5001497153
  C        42.1436080779       39.7569853612        7.5001497153
  C        42.1438217009       52.0912863562        7.5001497153
  C        56.3844756929        2.7540816622        7.5001497153
  C        56.3846893159       15.0883805112        7.5001497153
  C        56.3849029389       27.4226824592        7.5001497153
  C        56.3851203769       39.7569853612        7.5001497153
  C        56.3853339999       52.0912863562        7.5001497153
  C        70.6259803619        2.7540816622        7.5001497153
  C        70.6262016149       15.0883805112        7.5001497153
  C        70.6264152379       27.4226824592        7.5001497153
  C        70.6266288609       39.7569853612        7.5001497153
  C        70.6268424839       52.0912863562        7.5001497153
  C         2.9779360149        4.8884450742        7.4999247673
  C         2.9781513069       17.2227446392        7.4999247673
  C         2.9783663599       29.5570456342        7.4999247673
  C         2.9785814139       41.8913504432        7.4999247673
  C         2.9787967059       54.2256476232        7.4999247673
  C        17.2194461669        4.8884450742        7.4999247673
  C        17.2196616979       17.2227446392        7.4999247673
  C        17.2198772279       29.5570456342        7.4999247673
  C        17.2200908509       41.8913504432        7.4999247673
  C        17.2203063819       54.2256476232        7.4999247673
  C        31.4609565589        4.8884450742        7.4999247673
  C        31.4611720889       17.2227446392        7.4999247673
  C        31.4613876189       29.5570456342        7.4999247673
  C        31.4616012419       41.8913504432        7.4999247673
  C        31.4618167729       54.2256476232        7.4999247673
  C        45.7024650429        4.8884450742        7.4999247673
  C        45.7026824799       17.2227446392        7.4999247673
  C        45.7028961029       29.5570456342        7.4999247673
  C        45.7031135409       41.8913504432        7.4999247673
  C        45.7033271639       54.2256476232        7.4999247673
  C        59.9439735259        4.8884450742        7.4999247673
  C        59.9441909639       17.2227446392        7.4999247673
  C        59.9444045869       29.5570456342        7.4999247673
  C        59.9446220249       41.8913504432        7.4999247673
  C        59.9448356479       54.2256476232        7.4999247673
  C         1.7711158839        6.8317896682        7.5011247873
  C         1.7713310569       19.1660887552        7.5011247873
  C         1.7715461109       31.5003916572        7.5011247873
  C         1.7717612829       43.8346907452        7.5011247873
  C         1.7719764559       56.1689917402        7.5011247873
  C        16.0126256789        6.8317896682        7.5011247873
  C        16.0128412099       19.1660887552        7.5011247873
  C        16.0130567399       31.5003916572        7.5011247873
  C        16.0132713169       43.8346907452        7.5011247873
  C        16.0134868469       56.1689917402        7.5011247873
  C        30.2541370239        6.8317896682        7.5011247873
  C        30.2543506469       19.1660887552        7.5011247873
  C        30.2545661779       31.5003916572        7.5011247873
  C        30.2547817079       43.8346907452        7.5011247873
  C        30.2549972389       56.1689917402        7.5011247873
  C        44.4956436009        6.8317896682        7.5011247873
  C        44.4958610389       19.1660887552        7.5011247873
  C        44.4960746619       31.5003916572        7.5011247873
  C        44.4962920989       43.8346907452        7.5011247873
  C        44.4965057219       56.1689917402        7.5011247873
  C        58.7371558989        6.8317896682        7.5011247873
  C        58.7373733369       19.1660887552        7.5011247873
  C        58.7375869599       31.5003916572        7.5011247873
  C        58.7378043979       43.8346907452        7.5011247873
  C        58.7380180209       56.1689917402        7.5011247873
  C         0.6902060959        8.8480145292        7.4999097473
  C         0.6904212089       21.1823164772        7.4999097473
  C         0.6906363819       33.5166174722        7.4999097473
  C         0.6908515539       45.8509184672        7.4999097473
  C         0.6910666669       58.1852194622        7.4999097473
  C        14.9317169039        8.8480145292        7.4999097473
  C        14.9319324339       21.1823164772        7.4999097473
  C        14.9321470109       33.5166174722        7.4999097473
  C        14.9323625419       45.8509184672        7.4999097473
  C        14.9325780719       58.1852194622        7.4999097473
  C        29.1732272949        8.8480145292        7.4999097473
  C        29.1734428259       21.1823164772        7.4999097473
  C        29.1736583559       33.5166174722        7.4999097473
  C        29.1738738869       45.8509184672        7.4999097473
  C        29.1740875099       58.1852194622        7.4999097473
  C        43.4147376869        8.8480145292        7.4999097473
  C        43.4149513099       21.1823164772        7.4999097473
  C        43.4151649329       33.5166174722        7.4999097473
  C        43.4153823699       45.8509184672        7.4999097473
  C        43.4155959929       58.1852194622        7.4999097473
  C        57.6562461699        8.8480145292        7.4999097473
  C        57.6564597929       21.1823164772        7.4999097473
  C        57.6566734169       33.5166174722        7.4999097473
  C        57.6568908539       45.8509184672        7.4999097473
  C        57.6571044769       58.1852194622        7.4999097473
  C         4.1832289549        6.8327018572        7.5005547283
  C         4.1834440079       19.1670004682        7.5005547283
  C         4.1836590619       31.5013033702        7.5005547283
  C         4.1838741149       43.8356024572        7.5005547283
  C         4.1840896459       56.1699034522        7.5005547283
  C        18.4247379149        6.8327018572        7.5005547283
  C        18.4249515379       19.1670004682        7.5005547283
  C        18.4251670689       31.5013033702        7.5005547283
  C        18.4253825989       43.8356024572        7.5005547283
  C        18.4255981299       56.1699034522        7.5005547283
  C        32.6662444919        6.8327018572        7.5005547283
  C        32.6664619299       19.1670004682        7.5005547283
  C        32.6666755529       31.5013033702        7.5005547283
  C        32.6668929909       43.8356024572        7.5005547283
  C        32.6671066139       56.1699034522        7.5005547283
  C        46.9077567909        6.8327018572        7.5005547283
  C        46.9079742279       19.1670004682        7.5005547283
  C        46.9081878509       31.5013033702        7.5005547283
  C        46.9084052889       43.8356024572        7.5005547283
  C        46.9086189119       56.1699034522        7.5005547283
  C        61.1492652739        6.8327018572        7.5005547283
  C        61.1494827119       19.1670004682        7.5005547283
  C        61.1496963349       31.5013033702        7.5005547283
  C        61.1499137729       43.8356024572        7.5005547283
  C        61.1501273959       56.1699034522        7.5005547283
  C         2.9767818299        8.9212805582        7.4996247773
  C         2.9769971219       21.2555796462        7.4996247773
  C         2.9772121759       33.5898825482        7.4996247773
  C         2.9774274679       45.9241835432        7.4996247773
  C         2.9776425209       58.2584845382        7.4996247773
  C        17.2182922209        8.9212805582        7.4996247773
  C        17.2185077519       21.2555796462        7.4996247773
  C        17.2187213749       33.5898825482        7.4996247773
  C        17.2189369049       45.9241835432        7.4996247773
  C        17.2191524359       58.2584845382        7.4996247773
  C        31.4598026129        8.9212805582        7.4996247773
  C        31.4600181429       21.2555796462        7.4996247773
  C        31.4602317659       33.5898825482        7.4996247773
  C        31.4604472969       45.9241835432        7.4996247773
  C        31.4606628269       58.2584845382        7.4996247773
  C        45.7013091889        8.9212805582        7.4996247773
  C        45.7015228119       21.2555796462        7.4996247773
  C        45.7017402499       33.5898825482        7.4996247773
  C        45.7019538729       45.9241835432        7.4996247773
  C        45.7021674959       58.2584845382        7.4996247773
  C        59.9428214879        8.9212805582        7.4996247773
  C        59.9430351109       21.2555796462        7.4996247773
  C        59.9432525489       33.5898825482        7.4996247773
  C        59.9434661719       45.9241835432        7.4996247773
  C        59.9436797949       58.2584845382        7.4996247773
  C         5.2626995889        8.8496062112        7.4997447613
  C         5.2629146429       21.1839072062        7.4997447613
  C         5.2631296959       33.5182082012        7.4997447613
  C         5.2633447499       45.8525130102        7.4997447613
  C         5.2635598029       58.1868063762        7.4997447613
  C        19.5042095039        8.8496062112        7.4997447613
  C        19.5044250339       21.1839072062        7.4997447613
  C        19.5046405639       33.5182082012        7.4997447613
  C        19.5048560949       45.8525130102        7.4997447613
  C        19.5050697179       58.1868063762        7.4997447613
  C        33.7457198949        8.8496062112        7.4997447613
  C        33.7459335179       21.1839072062        7.4997447613
  C        33.7461471409       33.5182082012        7.4997447613
  C        33.7463645789       45.8525130102        7.4997447613
  C        33.7465782019       58.1868063762        7.4997447613
  C        47.9872321929        8.8496062112        7.4997447613
  C        47.9874458159       21.1839072062        7.4997447613
  C        47.9876594389       33.5182082012        7.4997447613
  C        47.9878768769       45.8525130102        7.4997447613
  C        47.9880904999       58.1868063762        7.4997447613
  C        62.2287406769        8.8496062112        7.4997447613
  C        62.2289542999       21.1839072062        7.4997447613
  C        62.2291679229       33.5182082012        7.4997447613
  C        62.2293853609       45.8525130102        7.4997447613
  C        62.2295989839       58.1868063762        7.4997447613
  C        10.0988187639        4.8882114242        7.5000897533
  C        10.0990333409       17.2225119422        7.5000897533
  C        10.0992488709       29.5568129372        7.5000897533
  C        10.0994644019       41.8911139322        7.5000897533
  C        10.0996789779       54.2254149271        7.5000897533
  C        24.3403301089        4.8882114242        7.5000897533
  C        24.3405456389       17.2225119422        7.5000897533
  C        24.3407611699       29.5568129372        7.5000897533
  C        24.3409747929       41.8911139322        7.5000897533
  C        24.3411903229       54.2254149271        7.5000897533
  C        38.5818366859        4.8882114242        7.5000897533
  C        38.5820541229       17.2225119422        7.5000897533
  C        38.5822677459       29.5568129372        7.5000897533
  C        38.5824851839       41.8911139322        7.5000897533
  C        38.5826988069       54.2254149271        7.5000897533
  C        52.8233489839        4.8882114242        7.5000897533
  C        52.8235664219       17.2225119422        7.5000897533
  C        52.8237800449       29.5568129372        7.5000897533
  C        52.8239974829       41.8911139322        7.5000897533
  C        52.8242111059       54.2254149271        7.5000897533
  C        67.0648612829        4.8882114242        7.5000897533
  C        67.0650749059       17.2225119422        7.5000897533
  C        67.0652961579       29.5568129372        7.5000897533
  C        67.0655097809       41.8911139322        7.5000897533
  C        67.0657234039       54.2254149271        7.5000897533
  C         8.8916139449        6.8314186882        7.5005698083
  C         8.8918294759       19.1657187292        7.5005698083
  C         8.8920450059       31.5000197242        7.5005698083
  C         8.8922595829       43.8343207191        7.5005698083
  C         8.8924751129       56.1686217141        7.5005698083
  C        23.1331233829        6.8314186882        7.5005698083
  C        23.1333370059       19.1657187292        7.5005698083
  C        23.1335525359       31.5000197242        7.5005698083
  C        23.1337680669       43.8343207191        7.5005698083
  C        23.1339835969       56.1686217141        7.5005698083
  C        37.3746299599        6.8314186882        7.5005698083
  C        37.3748473969       19.1657187292        7.5005698083
  C        37.3750610199       31.5000197242        7.5005698083
  C        37.3752784579       43.8343207191        7.5005698083
  C        37.3754920809       56.1686217141        7.5005698083
  C        51.6161422579        6.8314186882        7.5005698083
  C        51.6163596959       19.1657187292        7.5005698083
  C        51.6165733189       31.5000197242        7.5005698083
  C        51.6167907569       43.8343207191        7.5005698083
  C        51.6170043799       56.1686217141        7.5005698083
  C        65.8576621859        6.8314186882        7.5005698083
  C        65.8578758089       19.1657187292        7.5005698083
  C        65.8580894319       31.5000197242        7.5005698083
  C        65.8583030549       43.8343207191        7.5005698083
  C        65.8585166779       56.1686217141        7.5005698083
  C         7.8105907289        8.8475462752        7.4997897623
  C         7.8108062599       21.1818472692        7.4997897623
  C         7.8110213129       33.5161520792        7.4997897623
  C         7.8112363669       45.8504492592        7.4997897623
  C         7.8114514199       58.1847502542        7.4997897623
  C        22.0521011199        8.8475462752        7.4997897623
  C        22.0523166509       21.1818472692        7.4997897623
  C        22.0525321809       33.5161520792        7.4997897623
  C        22.0527477119       45.8504492592        7.4997897623
  C        22.0529613349       58.1847502542        7.4997897623