     224
 i =        0, time =        0.000, E =      -611.5287933685
  C         0.6246459638        0.6649731380        7.5012915913
  C         0.6248610768       12.9992741330        7.5012915913
  C        14.8661598118        0.6649731380        7.5012915913
  C        14.8663743888       12.9992741330        7.5012915913
  C         1.7052240518        2.6812013370        7.5000697553
  C         1.7054392248       15.0155018550        7.5000697553
  C        15.9467376618        2.6812013370        7.5000697553
  C        15.9469531928       15.0155018550        7.5000697553
  C         5.3331736478        0.6651506410        7.5007381623
  C         5.3333887008       12.9994515160        7.5007381623
  C        19.5746873767        0.6651506410        7.5007381623
  C        19.5749029068       12.9994515160        7.5007381623
  C         4.2533692268        2.6818588960        7.4999803483
  C         4.2535842808       15.0161589370        7.4999803483
  C        18.4948820028        2.6818588960        7.4999803483
  C        18.4950975328       15.0161589370        7.4999803483
  C         7.7455319318        0.6644669750        7.5007231413
  C         7.7457469848       12.9987677320        7.5007231413
  C        21.9870447068        0.6644669750        7.5007231413
  C        21.9872602378       12.9987677320        7.5007231413
  C         6.5397757438        2.7537516340        7.5002049383
  C         6.5399907978       15.0880526290        7.5002049383
  C        20.7812875658        2.7537516340        7.5002049383
  C        20.7815030968       15.0880526290        7.5002049383
  C         8.8261617568        2.6807712300        7.5000788153
  C         8.8263772878       15.0150717480        7.5000788153
  C        23.0676740558        2.6807712300        7.5000788153
  C        23.0678895858       15.0150717480        7.5000788153
  C        12.4540294557        0.6654531940        7.5011379903
  C        12.4542440328       12.9997528780        7.5011379903
  C        26.6955427078        0.6654531940        7.5011379903
  C        26.6957582388       12.9997528780        7.5011379903
  C        11.3741849808        2.6822284440        7.4999936403
  C        11.3744005118       15.0165299160        7.4999936403
  C        25.6156991867        2.6822284440        7.4999936403
  C        25.6159147178       15.0165299160        7.4999936403
  C        13.6602682028        2.7540811280        7.5001474203
  C        13.6604827788       15.0883826000        7.5001474203
  C        27.9017824087        2.7540811280        7.5001474203
  C        27.9019979388       15.0883826000        7.5001474203
  C         2.9782630358        4.8884466870        7.4999232473
  C         2.9784783278       17.2227476820        7.4999232473
  C        17.2197774797        4.8884466870        7.4999232473
  C        17.2199930098       17.2227476820        7.4999232473
  C         1.7714474348        6.8317903260        7.5011167703
  C         1.7716626078       19.1660898910        7.5011167703
  C        16.0129598528        6.8317903260        7.5011167703
  C        16.0131753837       19.1660898910        7.5011167703
  C         0.6905337718        8.8480137570        7.4999035183
  C         0.6907488858       21.1823157060        7.4999035183
  C        14.9320482168        8.8480137570        7.4999035183
  C        14.9322637467       21.1823157060        7.4999035183
  C         4.1835616978        6.8326967940        7.5005577983
  C         4.1837767508       19.1669977890        7.5005577983
  C        18.4250749498        6.8326967940        7.5005577983
  C        18.4252885727       19.1669977890        7.5005577983
  C         2.9771086128        8.9212759720        7.4996213493
  C         2.9773239048       21.2555769670        7.4996213493
  C        17.2186235338        8.9212759720        7.4996213493
  C        17.2188390648       21.2555769670        7.4996213493
  C         5.2630342398        8.8496083000        7.4997421083
  C         5.2632492928       21.1839102490        7.4997421083
  C        19.5045484458        8.8496083000        7.4997421083
  C        19.5047639758       21.1839102490        7.4997421083
  C        10.0991462618        4.8882049310        7.5000804243
  C        10.0993608388       17.2225054490        7.5000804243
  C        24.3406614217        4.8882049310        7.5000804243
  C        24.3408769517       17.2225054490        7.5000804243
  C         8.8919395357        6.8314203010        7.5005704943
  C         8.8921550657       19.1657217720        7.5005704943
  C        23.1334527878        6.8314203010        7.5005704943
  C        23.1336664108       19.1657217720        7.5005704943
  C         7.8109177498        8.8475445490        7.4997832953
  C         7.8111332808       21.1818445900        7.4997832953
  C        22.0524305257        8.8475445490        7.4997832953
  C        22.0526460558       21.1818445900        7.4997832953
  C         6.5388935958       11.0552824720        7.4999914943
  C         6.5391086488       23.3895834670        7.4999914943
  C        20.7804063708       11.0552824720        7.4999914943
  C        20.7806219008       23.3895834670        7.4999914943
  C        11.3041213898        6.8323611000        7.5011561093
  C        11.3043369207       19.1666620950        7.5011561093
  C        25.5456346428        6.8323611000        7.5011561093
  C        25.5458482657       19.1666620950        7.5011561093
  C        10.0974105748        8.9209173900        7.4998619733
  C        10.0976251518       21.2552202920        7.4998619733
  C        24.3389257338        8.9209173900        7.4998619733
  C        24.3391412648       21.2552202920        7.4998619733
  C        12.3836349397        8.8494147050        7.5000329793
  C        12.3838504708       21.1837156990        7.5000329793
  C        26.6251481918        8.8494147050        7.5000329793
  C        26.6253637227       21.1837156990        7.5000329793
  C        13.6594203858       11.0557698000        7.5003921573
  C        13.6596349627       23.3900698410        7.5003921573
  C        27.9009317307       11.0557698000        7.5003921573
  C        27.9011472618       23.3900698410        7.5003921573
  N         5.3535837088       11.6692265260        7.5006883923
  N         5.3537987618       24.0035284740        7.5006883923
  N        19.5950960068       11.6692265260        7.5006883923
  N        19.5953115377       24.0035284740        7.5006883923
  N         6.5375703728        9.5841511470        7.4997155843
  N         6.5377859028       21.9184511880        7.4997155843
  N        20.7790845778        9.5841511470        7.4997155843
  N        20.7793001087       21.9184511880        7.4997155843
  N         7.7498515998        7.5139521340        7.5000977103
  N         7.7500666528       19.8482531290        7.5000977103
  N        21.9913648518        7.5139521340        7.5000977103
  N        21.9915803817       19.8482531290        7.5000977103
  N         8.9133781347        5.5014947640        7.4998252573
  N         8.9135936647       17.8357962350        7.4998252573
  N        23.1548913868        5.5014947640        7.4998252573
  N        23.1551050097       17.8357962350        7.4998252573
  N         7.7246650608       11.6686323860        7.4996401843
  N         7.7248801148       24.0029352890        7.4996401843
  N        21.9661783127       11.6686323860        7.4996401843
  N        21.9663938437       24.0029352890        7.4996401843
  N         8.9348987488        9.5675085770        7.4990816293
  N         8.9351142797       21.9018095720        7.4990816293
  N        23.1764120017        9.5675085770        7.4990816293
  N        23.1766256248       21.9018095720        7.4990816293
  N        10.0977109817        7.5282858590        7.5015569513
  N        10.0979265127       19.8625849470        7.5015569513
  N        24.3392251878        7.5282858590        7.5015569513
  N        24.3394407187       19.8625849470        7.5015569513
  N        11.2845176608        5.5022820220        7.5006015483
  N        11.2847331908       17.8365820630        7.5006015483
  N        25.5260309128        5.5022820220        7.5006015483
  N        25.5262445358       17.8365820630        7.5006015483
  N        11.2591184528        9.5690249190        7.4985634863
  N        11.2593339828       21.9033259140        7.4985634863
  N        25.5006326587        9.5690249190        7.4985634863
  N        25.5008481887       21.9033259140        7.4985634863
  N        12.4452337178        7.5159543740        7.5012428943
  N        12.4454482948       19.8502558450        7.5012428943
  N        26.6867460158        7.5159543740        7.5012428943
  N        26.6869615468       19.8502558450        7.5012428943
  N        13.6583331978        9.5844076860        7.4999422613
  N        13.6585477738       21.9187086800        7.4999422613
  N        27.8998483567        9.5844076860        7.4999422613
  N        27.9000638878       21.9187086800        7.4999422613
  N        12.4741557987       11.6698340160        7.5006607953
  N        12.4743703758       24.0041350110        7.5006607953
  N        26.7156690507       11.6698340160        7.5006607953
  N        26.7158845818       24.0041350110        7.5006607953
  N         0.5810285658        3.4010745270        7.4988826693
  N         0.5812437088       15.7353762370        7.4988826693
  N        14.8225425628        3.4010745270        7.4988826693
  N        14.8227571398       15.7353762370        7.4988826693
  N         1.7662950908        1.3477175220        7.5011021673
  N         1.7665102628       13.6820181590        7.5011021673
  N        16.0078090578        1.3477175220        7.5011021673
  N        16.0080245888       13.6820181590        7.5011021673
  N         2.9790154848        3.4172645790        7.4997621953
  N         2.9792305378       15.7515639050        7.4997621953
  N        17.2205270678        3.4172645790        7.4997621953
  N        17.2207425978       15.7515639050        7.4997621953
  N         5.3777431398        3.4015713910        7.4998919543
  N         5.3779581938       15.7358721480        7.4998919543
  N        19.6192563918        3.4015713910        7.4998919543
  N        19.6194719228       15.7358721480        7.4998919543
  N         7.7020763308        3.4004598840        7.4990841923
  N         7.7022913848       15.7347620710        7.4990841923
  N        21.9435895828        3.4004598840        7.4990841923
  N        21.9438051137       15.7347620710        7.4990841923
  N         8.8873514088        1.3469569670        7.5009893363
  N         8.8875669388       13.6812580810        7.5009893363
  N        23.1288656148        1.3469569670        7.5009893363
  N        23.1290792378       13.6812580810        7.5009893363
  N         6.5395306498        1.3610062580        7.5013489903
  N         6.5397457038       13.6953066570        7.5013489903
  N        20.7810453328        1.3610062580        7.5013489903
  N        20.7812589558       13.6953066570        7.5013489903
  N         4.1919511708        1.3483171450        7.5000251113
  N         4.1921662238       13.6826180200        7.5000251113
  N        18.4334653767        1.3483171450        7.5000251113
  N        18.4336789998       13.6826180200        7.5000251113
  N        10.0999435338        3.4169822910        7.4998491583
  N        10.1001581108       15.7512816170        7.4998491583
  N        24.3414548788        3.4169822910        7.4998491583
  N        24.3416704088       15.7512816170        7.4998491583
  N        11.3127387908        1.3487250790        7.5005448043
  N        11.3129543218       13.6830252390        7.5005448043
  N        25.5542520437        1.3487250790        7.5005448043
  N        25.5544656668       13.6830252390        7.5005448043
  N        12.4985317137        3.4018217310        7.4991467773
  N        12.4987462908       15.7361220110        7.4991467773
  N        26.7400430588        3.4018217310        7.4991467773
  N        26.7402585898       15.7361220110        7.4991467773
  N        13.6601680668        1.3615519980        7.5019799053
  N        13.6603835968       13.6958531120        7.5019799053
  N        27.9016832268        1.3615519980        7.5019799053
  N        27.9018968498       13.6958531120        7.5019799053
  N         5.3246020228        7.5160831200        7.5009440963
  N         5.3248170768       19.8503836380        7.5009440963
  N        19.5661157518        7.5160831200        7.5009440963
  N        19.5663312828       19.8503836380        7.5009440963
  N         4.1386951358        9.5693072060        7.4980197133
  N         4.1389101898       21.9036082010        7.4980197133
  N        18.3802102958        9.5693072060        7.4980197133
  N        18.3804258258       21.9036082010        7.4980197133
  N         0.6037296208       11.6692064980        7.5005604213
  N         0.6039447938       24.0035074930        7.5005604213
  N        14.8452438267       11.6692064980        7.5005604213
  N        14.8454584038       24.0035074930        7.5005604213
  N         1.8145324138        9.5680264220        7.4987837853
  N         1.8147475868       21.9023283700        7.4987837853
  N        16.0560468588        9.5680264220        7.4987837853
  N        16.0562623887       21.9023283700        7.4987837853
  N         2.9772471338        7.5285819750        7.5016004023
  N         2.9774624258       19.8628824930        7.5016004023
  N        17.2187608628        7.5285819750        7.5016004023
  N        17.2189763938       19.8628824930        7.5016004023
  N         4.1636055858        5.5025504810        7.4989364323
  N         4.1638206398       17.8368509990        7.4989364323
  N        18.4051202687        5.5025504810        7.4989364323
  N        18.4053338918       17.8368509990        7.4989364323
  N         1.7924858478        5.5017293680        7.5011208233
  N         1.7927010208       17.8360289320        7.5011208233
  N        16.0339988617        5.5017293680        7.5011208233
  N        16.0342143928       17.8360289320        7.5011208233
  N         0.6295286568        7.5144828540        7.5005868253
  N         0.6297438298       19.8487833720        7.5005868253
  N        14.8710426238        7.5144828540        7.5005868253
  N        14.8712572008       19.8487833720        7.5005868253
